data_global
_chemical_name_mineral 'Auricupride'
loop_
_publ_author_name
'Megaw H D'
_journal_name_full 'Crystal Structures'
_journal_volume 1973 
_journal_year 1973
_journal_page_first 89
_journal_page_last 90
_publ_section_title
;
 Copper-gold alloy, Cu3Au
;
_database_code_amcsd 0011894
_chemical_formula_sum 'Au Cu3'
_cell_length_a 3.74
_cell_length_b 3.74
_cell_length_c 3.74
_cell_angle_alpha 90
_cell_angle_beta 90
_cell_angle_gamma 90
_cell_volume 52.314
_exptl_crystal_density_diffrn     12.303
_symmetry_space_group_name_H-M 'P m 3 m'
loop_
_space_group_symop_operation_xyz
  'x,y,z'
  'z,-x,y'
  '-y,z,-x'
  'x,-y,z'
  '-z,x,-y'
  'y,-z,x'
  '-x,y,-z'
  'x,-z,-y'
  '-z,y,x'
  'y,-x,-z'
  '-x,z,y'
  'z,-y,-x'
  '-y,x,z'
  'x,z,y'
  '-z,-y,-x'
  'y,x,z'
  '-x,-z,-y'
  'z,y,x'
  '-y,-x,-z'
  'z,x,-y'
  '-y,-z,x'
  'x,y,-z'
  '-z,-x,y'
  'y,z,-x'
  '-x,-y,z'
  '-z,x,y'
  'y,-z,-x'
  '-x,y,z'
  'z,-x,-y'
  '-y,z,x'
  'x,-y,-z'
  '-x,z,-y'
  'z,-y,x'
  '-y,x,-z'
  'x,-z,y'
  '-z,y,-x'
  'y,-x,z'
  '-x,-z,y'
  'z,y,-x'
  '-y,-x,z'
  'x,z,-y'
  '-z,-y,x'
  'y,x,-z'
  '-z,-x,-y'
  'y,z,x'
  '-x,-y,-z'
  'z,x,y'
  '-y,-z,-x'
loop_
_atom_site_label
_atom_site_fract_x
_atom_site_fract_y
_atom_site_fract_z
Au   0.00000   0.00000   0.00000
Cu   0.00000   0.50000   0.50000

